# vtk DataFile Version 3.0
Maillage d'image
ASCII
DATASET UNSTRUCTURED_GRID

POINTS 161 float
154 -173 0
149 -161 0
153 -158 0
66 -202 0
36 -194 0
44 -188 0
9 -225 0
4 -242 0
4 -214 0
24 -142 0
38 -174 0
0 -169 0
29 -76 0
47 -103 0
0 -96 0
110 -312 0
111 -317 0
111 -319 0
48 -38 0
77 -30 0
66 -58 0
127 -317 0
120 -317 0
110 -55 0
0 -320 0
0 0 0
0 -189 0
21 -232 0
41 -236 0
2 -247 0
224 -320 0
161 -319 0
165 -319 0
15 -202 0
8 -205 0
15 -231 0
34 -60 0
56 -80 0
133 -297 0
133 -300 0
131 -299 0
67 -1 0
43 -4 0
36 -1 0
56 -88 0
126 -309 0
123 -315 0
122 -312 0
15 -214 0
128 -301 0
99 -248 0
139 -303 0
136 -305 0
65 -81 0
74 -106 0
155 -155 0
153 -156 0
144 -101 0
159 -52 0
145 -293 0
141 -299 0
139 -296 0
65 -165 0
121 -163 0
121 -308 0
119 -312 0
115 -309 0
3 -181 0
155 -148 0
119 -317 0
58 -23 0
34 0 0
224 0 0
170 -27 0
93 -13 0
64 -13 0
86 0 0
127 -31 0
136 -18 0
10 -210 0
143 -283 0
55 -187 0
123 -316 0
59 -83 0
138 -312 0
126 -304 0
126 -302 0
107 -296 0
73 -317 0
151 -297 0
171 -307 0
148 -318 0
121 -307 0
117 -305 0
52 -175 0
61 -318 0
155 -223 0
57 -319 0
56 -319 0
186 -315 0
121 -305 0
124 -303 0
0 -71 0
13 -124 0
0 -119 0
96 -4 0
106 -1 0
107 -7 0
43 -185 0
41 -189 0
40 -190 0
190 -212 0
167 -205 0
9 -213 0
143 -178 0
119 -17 0
151 -155 0
201 -181 0
166 -194 0
188 -286 0
185 -195 0
180 -200 0
150 -155 0
147 -157 0
151 -154 0
139 -163 0
154 -150 0
156 -153 0
159 -154 0
156 -154 0
169 -162 0
204 -262 0
155 -151 0
153 -153 0
205 -308 0
205 -289 0
0 -55 0
27 -12 0
20 -4 0
15 -5 0
0 -42 0
18 -1 0
0 -32 0
11 -2 0
17 0 0
0 -24 0
3 -11 0
0 -18 0
9 0 0
8 0 0
4 -3 0
2 -4 0
3 -1 0
0 -14 0
5 0 0
4 0 0
0 -10 0
0 -8 0
3 0 0
1 -1 0
1 0 0

CELLS 316 1264
3 0 1 2 
3 3 4 5 
3 6 7 8 
3 9 10 11 
3 12 13 14 
3 15 16 17 
3 18 19 20 
3 21 17 22 
3 19 23 20 
3 24 25 26 
3 27 28 29 
3 30 31 32 
3 26 33 34 
3 35 27 7 
3 36 20 37 
3 38 39 40 
3 41 42 43 
3 13 12 44 
3 45 46 47 
3 28 27 48 
3 39 49 40 
3 50 28 3 
3 7 27 29 
3 6 35 7 
3 27 35 48 
3 35 6 48 
3 28 4 3 
3 36 18 20 
3 39 51 52 
3 53 54 44 
3 29 24 26 
3 55 2 56 
3 57 23 58 
3 59 60 61 
3 62 54 63 
3 54 23 57 
3 64 65 66 
3 10 67 11 
3 67 26 11 
3 54 57 63 
3 26 25 11 
3 63 57 68 
3 22 17 69 
3 18 70 19 
3 41 43 71 
3 72 58 73 
3 74 75 76 
3 58 23 77 
3 73 58 78 
3 75 41 76 
3 58 77 78 
3 72 73 78 
3 60 51 61 
3 70 75 19 
3 34 33 79 
3 38 80 61 
3 54 13 44 
3 62 3 81 
3 21 22 82 
3 17 16 69 
3 16 65 69 
3 26 67 33 
3 67 4 33 
3 37 53 83 
3 51 84 52 
3 30 24 17 
3 65 16 66 
3 85 86 49 
3 87 15 88 
3 15 17 88 
3 46 65 47 
3 89 90 31 
3 91 17 21 
3 21 46 45 
3 28 50 88 
3 50 87 88 
3 45 64 92 
3 64 93 92 
3 62 81 94 
3 30 17 31 
3 46 22 65 
3 31 90 32 
3 16 15 66 
3 17 91 31 
3 28 88 95 
3 15 87 66 
3 45 47 64 
3 47 65 64 
3 87 93 66 
3 93 64 66 
3 50 96 80 
3 53 44 83 
3 87 50 80 
3 23 19 74 
3 19 75 74 
3 97 24 98 
3 24 29 98 
3 51 91 84 
3 91 21 84 
3 21 45 84 
3 87 80 38 
3 89 51 60 
3 89 60 59 
3 30 32 99 
3 86 87 49 
3 91 51 89 
3 45 92 85 
3 85 100 101 
3 84 45 52 
3 85 92 100 
3 92 93 100 
3 100 93 101 
3 93 87 101 
3 87 86 101 
3 86 85 101 
3 87 38 49 
3 45 85 52 
3 91 89 31 
3 88 17 97 
3 17 24 97 
3 95 88 97 
3 29 28 98 
3 28 95 98 
3 95 97 98 
3 80 89 59 
3 80 59 61 
3 12 14 102 
3 103 11 104 
3 7 29 8 
3 29 26 8 
3 105 106 107 
3 81 108 94 
3 65 22 69 
3 22 46 82 
3 62 63 3 
3 12 36 37 
3 23 54 53 
3 49 38 40 
3 54 62 13 
3 62 9 13 
3 9 103 13 
3 46 21 82 
3 108 109 110 
3 9 62 10 
3 111 96 112 
3 6 113 48 
3 4 67 10 
3 96 114 112 
3 108 10 94 
3 38 61 39 
3 61 51 39 
3 109 5 110 
3 5 4 110 
3 4 10 110 
3 108 81 5 
3 81 3 5 
3 108 5 109 
3 10 108 110 
3 85 49 52 
3 49 39 52 
3 44 37 83 
3 26 34 8 
3 34 79 8 
3 79 113 8 
3 113 6 8 
3 11 25 104 
3 78 77 115 
3 77 23 115 
3 106 115 107 
3 37 20 53 
3 20 23 53 
3 12 37 44 
3 113 79 48 
3 79 33 48 
3 33 4 48 
3 4 28 48 
3 2 116 56 
3 103 9 11 
3 32 90 99 
3 57 58 117 
3 58 72 117 
3 72 30 117 
3 118 114 0 
3 50 3 114 
3 3 63 114 
3 96 50 114 
3 99 90 119 
3 120 111 121 
3 122 123 124 
3 1 122 2 
3 114 63 125 
3 114 125 1 
3 1 123 122 
3 0 114 1 
3 63 68 123 
3 1 125 123 
3 125 63 123 
3 124 123 126 
3 127 128 129 
3 118 0 130 
3 0 2 130 
3 68 57 130 
3 57 117 130 
3 131 96 111 
3 130 2 128 
3 123 68 126 
3 128 2 55 
3 68 130 128 
3 128 55 129 
3 55 127 129 
3 68 128 132 
3 68 132 126 
3 132 133 126 
3 133 124 126 
3 132 128 127 
3 133 132 127 
3 55 133 127 
3 124 133 116 
3 2 122 116 
3 122 124 116 
3 116 133 56 
3 133 55 56 
3 13 103 14 
3 103 104 14 
3 72 78 106 
3 78 115 106 
3 105 107 74 
3 107 115 74 
3 115 23 74 
3 80 96 119 
3 90 89 119 
3 89 80 119 
3 119 96 131 
3 30 99 134 
3 99 119 134 
3 117 30 131 
3 119 131 135 
3 131 30 135 
3 119 135 134 
3 135 30 134 
3 117 111 120 
3 117 131 111 
3 118 130 120 
3 130 117 120 
3 118 120 121 
3 114 118 112 
3 118 121 112 
3 121 111 112 
3 10 62 94 
3 104 25 14 
3 41 71 76 
3 14 25 102 
3 41 75 42 
3 75 70 42 
3 36 12 102 
3 25 72 71 
3 36 102 136 
3 102 25 136 
3 71 137 138 
3 71 43 137 
3 43 42 137 
3 42 70 137 
3 70 18 137 
3 71 72 76 
3 138 137 139 
3 36 136 140 
3 136 25 140 
3 72 106 76 
3 106 105 76 
3 105 74 76 
3 71 138 141 
3 138 139 141 
3 18 140 142 
3 18 36 140 
3 139 143 144 
3 140 25 142 
3 137 142 145 
3 137 18 142 
3 25 71 144 
3 71 141 144 
3 141 139 144 
3 142 25 145 
3 143 139 146 
3 139 137 146 
3 137 145 147 
3 25 144 148 
3 144 143 148 
3 145 25 147 
3 25 148 149 
3 146 137 147 
3 143 146 150 
3 150 151 152 
3 148 143 149 
3 143 150 149 
3 147 25 153 
3 25 149 154 
3 146 147 153 
3 149 150 154 
3 25 154 155 
3 150 146 151 
3 153 25 156 
3 154 150 152 
3 156 25 157 
3 25 155 158 
3 146 153 156 
3 154 152 155 
3 152 151 159 
3 151 25 159 
3 155 152 158 
3 152 159 158 
3 25 151 157 
3 151 146 157 
3 146 156 157 
3 158 159 160 
3 159 25 160 
3 25 158 160 

CELL_TYPES 316
5
5
5
5
5
5
5
5
5
5
5
5
5
5
5
5
5
5
5
5
5
5
5
5
5
5
5
5
5
5
5
5
5
5
5
5
5
5
5
5
5
5
5
5
5
5
5
5
5
5
5
5
5
5
5
5
5
5
5
5
5
5
5
5
5
5
5
5
5
5
5
5
5
5
5
5
5
5
5
5
5
5
5
5
5
5
5
5
5
5
5
5
5
5
5
5
5
5
5
5
5
5
5
5
5
5
5
5
5
5
5
5
5
5
5
5
5
5
5
5
5
5
5
5
5
5
5
5
5
5
5
5
5
5
5
5
5
5
5
5
5
5
5
5
5
5
5
5
5
5
5
5
5
5
5
5
5
5
5
5
5
5
5
5
5
5
5
5
5
5
5
5
5
5
5
5
5
5
5
5
5
5
5
5
5
5
5
5
5
5
5
5
5
5
5
5
5
5
5
5
5
5
5
5
5
5
5
5
5
5
5
5
5
5
5
5
5
5
5
5
5
5
5
5
5
5
5
5
5
5
5
5
5
5
5
5
5
5
5
5
5
5
5
5
5
5
5
5
5
5
5
5
5
5
5
5
5
5
5
5
5
5
5
5
5
5
5
5
5
5
5
5
5
5
5
5
5
5
5
5
5
5
5
5
5
5
5
5
5
5
5
5
5
5
5
5
5
5
5
5
5
5
5
5
5
5
5
5
5
5
5
5
5
5
5
5

CELL_DATA 316
SCALARS cell_data int 1
LOOKUP_TABLE default
87
74
85
235
224
51
134
95
68
170
0
89
237
2
148
142
249
207
134
4
140
2
2
4
5
7
14
198
219
66
167
91
79
159
77
72
61
241
249
73
170
83
23
134
251
173
154
8
96
234
14
172
224
135
176
146
137
76
150
44
22
237
168
93
157
190
82
146
9
29
73
4
97
204
3
5
64
59
153
108
71
8
88
27
1
68
65
3
119
117
62
144
61
5
72
87
85
82
78
137
76
152
87
90
82
78
129
75
143
70
60
65
65
73
138
34
206
5
25
108
2
2
2
3
67
139
237
243
83
166
195
155
1
149
77
152
0
92
146
222
222
220
245
228
15
12
172
82
231
154
213
227
158
174
137
60
221
237
159
157
159
247
186
110
90
170
9
2
113
82
66
152
32
98
90
18
104
235
8
163
175
251
159
78
77
81
7
174
221
87
77
78
139
155
71
62
61
227
163
167
169
166
239
31
96
154
83
99
157
228
82
161
232
249
147
224
228
249
169
245
178
165
230
243
173
92
115
33
5
62
4
59
24
86
5
186
21
103
2
84
174
112
171
249
171
85
92
95
229
170
251
170
232
215
220
170
234
170
245
245
243
226
209
251
245
234
170
251
251
171
251
251
232
215
251
170
245
226
170
251
251
170
251
245
245
170
251
170
170
245
251
251
251
251
170
170
251
251
170
251
170
251
170
170
251
251
251
170
251
251
170
251
251
251
170
170

POINT_DATA 161
SCALARS node_data int 1
LOOKUP_TABLE default
233
5
23
0
44
180
6
4
246
228
228
251
211
211
251
19
66
68
196
6
200
216
3
0
251
10
251
1
0
1
251
7
11
216
246
3
200
46
52
196
180
251
246
251
200
185
211
8
12
44
7
228
233
0
0
211
39
216
23
33
228
216
228
3
3
0
180
246
32
0
200
251
251
246
11
200
251
2
19
66
170
0
233
233
11
200
196
7
2
0
6
8
4
170
233
1
9
5
5
8
7
18
251
228
251
251
251
83
233
251
251
27
9
19
228
6
251
251
18
7
246
251
233
180
251
1
251
228
15
246
251
58
200
246
1
0
251
233
251
251
251
251
251
251
251
251
251
251
251
251
251
251
251
251
251
251
251
251
251
251
251
