# vtk DataFile Version 3.0
Prout!
ASCII
DATASET UNSTRUCTURED_GRID

POINTS 4 float
0 0 0
639 0 0
0 -479 0
639 -479 0

CELLS 2 8
3 0 1 2
3 1 3 2

CELL_TYPES 2
5
5

CELL_DATA 2

SCALARS data int 1

LOOKUP_TABLE default
189
161

POINT_DATA 4

SCALARS node_data int 1

LOOKUP_TABLE default
1
2
3
4
